% Model:              timedependent_cylinder_V02.mph
% Version:            COMSOL 6.0.0.405
% Date:               Mar 13 2023, 20:25
% Dimension:          3
% Nodes:              1
% Expressions:        174
% Description:        Temperature
% Length unit:        m
% x                       y                        z                        T (K) @ t=1.2, Length_cyl=0.0224, EC=142.8, TC=0.4, Pulse_time=1.2, Voltage=111.68 T (K) @ t=0.04, Length_cyl=0.0166, EC=142.8, TC=0.4, Pulse_time=0.05, Voltage=67.723 T (K) @ t=0.3, Length_cyl=0.0224, EC=142.8, TC=0.4, Pulse_time=0.3, Voltage=111.68 T (K) @ t=0.9, Length_cyl=0.0224, EC=142.8, TC=0.4, Pulse_time=0.9, Voltage=111.68 T (K) @ t=0.12, Length_cyl=0.0204, EC=142.8, TC=0.4, Pulse_time=0.125, Voltage=68.911 T (K) @ t=0.2, Length_cyl=0.0224, EC=142.8, TC=0.4, Pulse_time=0.2, Voltage=111.68 T (K) @ t=0.74, Length_cyl=0.0191, EC=142.8, TC=0.4, Pulse_time=0.75, Voltage=124.16 T (K) @ t=1, Length_cyl=0.0375, EC=142.8, TC=0.4, Pulse_time=1, Voltage=223.17 T (K) @ t=0.5, Length_cyl=0.0375, EC=142.8, TC=0.4, Pulse_time=0.5, Voltage=200.4 T (K) @ t=0.28, Length_cyl=0.0197, EC=142.8, TC=0.4, Pulse_time=0.28, Voltage=115.69 T (K) @ t=0.3, Length_cyl=0.0375, EC=142.8, TC=0.4, Pulse_time=0.3, Voltage=240 T (K) @ t=0.5, Length_cyl=0.0375, EC=142.8, TC=0.4, Pulse_time=0.5, Voltage=200 T (K) @ t=0.32, Length_cyl=0.01, EC=142.8, TC=0.4, Pulse_time=0.325, Voltage=41.584 T (K) @ t=0.26, Length_cyl=0.0118, EC=142.8, TC=0.4, Pulse_time=0.265, Voltage=59.406 T (K) @ t=0.04, Length_cyl=0.0207, EC=142.8, TC=0.4, Pulse_time=0.04, Voltage=148.51 T (K) @ t=0.14, Length_cyl=0.0224, EC=142.8, TC=0.4, Pulse_time=0.15, Voltage=121.34 T (K) @ t=0.6, Length_cyl=0.0197, EC=142.8, TC=0.4, Pulse_time=0.6, Voltage=63.861 T (K) @ t=0.24, Length_cyl=0.0269, EC=142.8, TC=0.4, Pulse_time=0.25, Voltage=135.45 T (K) @ t=0.34, Length_cyl=0.0315, EC=142.8, TC=0.4, Pulse_time=0.35, Voltage=152.38 T (K) @ t=0.2, Length_cyl=0.0224, EC=142.8, TC=0.4, Pulse_time=0.2, Voltage=114.06 T (K) @ t=0.7, Length_cyl=0.0224, EC=142.8, TC=0.4, Pulse_time=0.7, Voltage=114.06 T (K) @ t=1.2, Length_cyl=0.0224, EC=142.8, TC=0.4, Pulse_time=1.2, Voltage=114.06 T (K) @ t=0.06, Length_cyl=0.0148, EC=142.8, TC=0.4, Pulse_time=0.075, Voltage=88.812 T (K) @ t=0.12, Length_cyl=0.0148, EC=142.8, TC=0.4, Pulse_time=0.125, Voltage=88.812 T (K) @ t=0.24, Length_cyl=0.0148, EC=142.8, TC=0.4, Pulse_time=0.25, Voltage=88.812 T (K) @ t=0.4, Length_cyl=0.0224, EC=142.8, TC=0.4, Pulse_time=0.4, Voltage=109.31 T (K) @ t=0.6, Length_cyl=0.0259, EC=142.8, TC=0.4, Pulse_time=0.61, Voltage=109.31 T (K) @ t=0.04, Length_cyl=0.0236, EC=142.8, TC=0.4, Pulse_time=0.05, Voltage=35.644 T (K) @ t=0.7, Length_cyl=0.0148, EC=142.8, TC=0.4, Pulse_time=0.7, Voltage=88.812 T (K) @ t=0.4, Length_cyl=0.0224, EC=142.8, TC=0.4, Pulse_time=0.4, Voltage=135.45 T (K) @ t=0.04, Length_cyl=0.026, EC=142.8, TC=0.4, Pulse_time=0.05, Voltage=77.228 T (K) @ t=0.2, Length_cyl=0.0224, EC=142.8, TC=0.4, Pulse_time=0.2, Voltage=135.45 T (K) @ t=0.14, Length_cyl=0.0093, EC=142.8, TC=0.4, Pulse_time=0.15, Voltage=71.436 T (K) @ t=0.02, Length_cyl=0.0154, EC=142.8, TC=0.4, Pulse_time=0.03, Voltage=121.34 T (K) @ t=0.5, Length_cyl=0.0213, EC=142.8, TC=0.4, Pulse_time=0.5, Voltage=54.059 T (K) @ t=0.1, Length_cyl=0.0106, EC=142.8, TC=0.4, Pulse_time=0.1, Voltage=71.436 T (K) @ t=0.06, Length_cyl=0.0158, EC=142.8, TC=0.4, Pulse_time=0.07, Voltage=107.23 T (K) @ t=0.8, Length_cyl=0.0139, EC=142.8, TC=0.4, Pulse_time=0.8, Voltage=130.69 T (K) @ t=0.5, Length_cyl=0.0277, EC=142.8, TC=0.4, Pulse_time=0.5, Voltage=135.45 T (K) @ t=0.04, Length_cyl=0.0144, EC=142.8, TC=0.4, Pulse_time=0.04, Voltage=148.51 T (K) @ t=0.1, Length_cyl=0.0224, EC=142.8, TC=0.4, Pulse_time=0.1, Voltage=118.81 T (K) @ t=0.22, Length_cyl=0.0158, EC=142.8, TC=0.4, Pulse_time=0.225, Voltage=90.297 T (K) @ t=0.4, Length_cyl=0.0125, EC=142.8, TC=0.4, Pulse_time=0.4, Voltage=46.337 T (K) @ t=0.08, Length_cyl=0.0176, EC=142.8, TC=0.4, Pulse_time=0.08, Voltage=35.644 T (K) @ t=1.2, Length_cyl=0.0224, EC=142.8, TC=0.4, Pulse_time=1.2, Voltage=118.81 T (K) @ t=0.6, Length_cyl=0.0156, EC=142.8, TC=0.4, Pulse_time=0.6, Voltage=90.297 T (K) @ t=0.34, Length_cyl=0.0279, EC=142.8, TC=0.4, Pulse_time=0.34, Voltage=52.277 T (K) @ t=0.34, Length_cyl=0.0161, EC=142.8, TC=0.4, Pulse_time=0.35, Voltage=99.802 T (K) @ t=0.44, Length_cyl=0.0239, EC=142.8, TC=0.4, Pulse_time=0.45, Voltage=73.366 T (K) @ t=0.34, Length_cyl=0.0076, EC=142.8, TC=0.4, Pulse_time=0.34, Voltage=95.05 T (K) @ t=0.12, Length_cyl=0.0171, EC=142.8, TC=0.4, Pulse_time=0.12, Voltage=101.29 T (K) @ t=0.4, Length_cyl=0.0142, EC=142.8, TC=0.4, Pulse_time=0.4, Voltage=117.62 T (K) @ t=0.1, Length_cyl=0.0222, EC=142.8, TC=0.4, Pulse_time=0.11, Voltage=112.87 T (K) @ t=0.64, Length_cyl=0.0152, EC=142.8, TC=0.4, Pulse_time=0.65, Voltage=56.436 T (K) @ t=0.38, Length_cyl=0.0135, EC=142.8, TC=0.4, Pulse_time=0.39, Voltage=47.525 T (K) @ t=0.5, Length_cyl=0.0222, EC=142.8, TC=0.4, Pulse_time=0.5, Voltage=101.58 T (K) @ t=0.5, Length_cyl=0.0224, EC=142.8, TC=0.4, Pulse_time=0.5, Voltage=107.23 T (K) @ t=0.14, Length_cyl=0.0349, EC=118.41, TC=2.2, Pulse_time=0.15, Voltage=99.802 T (K) @ t=0.3, Length_cyl=0.031, EC=118.41, TC=2.2, Pulse_time=0.3, Voltage=107.23 T (K) @ t=0.52, Length_cyl=0.0279, EC=118.41, TC=2.2, Pulse_time=0.52, Voltage=80.792 T (K) @ t=0.32, Length_cyl=0.0455, EC=118.41, TC=2.2, Pulse_time=0.32, Voltage=159.65 T (K) @ t=0.42, Length_cyl=0.0508, EC=118.41, TC=2.2, Pulse_time=0.43, Voltage=124.16 T (K) @ t=0.12, Length_cyl=0.0385, EC=118.41, TC=2.2, Pulse_time=0.124, Voltage=92.673 T (K) @ t=0.06, Length_cyl=0.0361, EC=118.41, TC=2.2, Pulse_time=0.065, Voltage=83.168 T (K) @ t=0.18, Length_cyl=0.028, EC=118.41, TC=2.2, Pulse_time=0.189, Voltage=112.87 T (K) @ t=0.04, Length_cyl=0.0342, EC=118.41, TC=2.2, Pulse_time=0.04, Voltage=104.41 T (K) @ t=0.16, Length_cyl=0.0222, EC=118.41, TC=2.2, Pulse_time=0.176, Voltage=143.76 T (K) @ t=0.14, Length_cyl=0.0274, EC=118.41, TC=2.2, Pulse_time=0.156, Voltage=99.802 T (K) @ t=0.04, Length_cyl=0.0375, EC=118.41, TC=2.2, Pulse_time=0.05, Voltage=95.05 T (K) @ t=0.06, Length_cyl=0.0357, EC=118.41, TC=2.2, Pulse_time=0.078, Voltage=115.69 T (K) @ t=0.34, Length_cyl=0.0311, EC=118.41, TC=2.2, Pulse_time=0.35, Voltage=126.98 T (K) @ t=0.16, Length_cyl=0.0428, EC=118.41, TC=2.2, Pulse_time=0.168, Voltage=147.03 T (K) @ t=0.18, Length_cyl=0.0334, EC=118.41, TC=2.2, Pulse_time=0.195, Voltage=102.18 T (K) @ t=0.08, Length_cyl=0.0301, EC=118.41, TC=2.2, Pulse_time=0.095, Voltage=106.93 T (K) @ t=0.12, Length_cyl=0.0348, EC=118.41, TC=2.2, Pulse_time=0.123, Voltage=135.45 T (K) @ t=0.06, Length_cyl=0.034, EC=118.41, TC=2.2, Pulse_time=0.07, Voltage=124.16 T (K) @ t=0.18, Length_cyl=0.0413, EC=118.41, TC=2.2, Pulse_time=0.192, Voltage=153.56 T (K) @ t=0.34, Length_cyl=0.0378, EC=118.41, TC=2.2, Pulse_time=0.35, Voltage=118.51 T (K) @ t=0.5, Length_cyl=0.0419, EC=118.41, TC=2.2, Pulse_time=0.5, Voltage=143.76 T (K) @ t=0.4, Length_cyl=0.0257, EC=118.41, TC=2.2, Pulse_time=0.4, Voltage=87.921 T (K) @ t=0.1, Length_cyl=0.0479, EC=130.9, TC=1.2, Pulse_time=0.1, Voltage=140.5 T (K) @ t=0.48, Length_cyl=0.0404, EC=130.9, TC=1.2, Pulse_time=0.48, Voltage=77.228 T (K) @ t=0.7, Length_cyl=0.0466, EC=130.9, TC=1.2, Pulse_time=0.7, Voltage=105.15 T (K) @ t=0.42, Length_cyl=0.0267, EC=130.9, TC=1.2, Pulse_time=0.42, Voltage=95.05 T (K) @ t=0.54, Length_cyl=0.0514, EC=130.9, TC=1.2, Pulse_time=0.54, Voltage=118.81 T (K) @ t=0.36, Length_cyl=0.0413, EC=130.9, TC=1.2, Pulse_time=0.36, Voltage=122.67 T (K) @ t=0.06, Length_cyl=0.0459, EC=130.9, TC=1.2, Pulse_time=0.075, Voltage=130.69 T (K) @ t=0.04, Length_cyl=0.029, EC=130.9, TC=1.2, Pulse_time=0.05, Voltage=46.337 T (K) @ t=0.36, Length_cyl=0.0331, EC=130.9, TC=1.2, Pulse_time=0.36, Voltage=99.802 T (K) @ t=0.56, Length_cyl=0.025, EC=130.9, TC=1.2, Pulse_time=0.56, Voltage=124.16 T (K) @ t=0.08, Length_cyl=0.0385, EC=130.9, TC=1.2, Pulse_time=0.09, Voltage=159.65 T (K) @ t=0.04, Length_cyl=0.0285, EC=130.9, TC=1.2, Pulse_time=0.04, Voltage=35.644 T (K) @ t=0.04, Length_cyl=0.025, EC=130.9, TC=1.2, Pulse_time=0.05, Voltage=124.16 T (K) @ t=0.1, Length_cyl=0.0533, EC=130.9, TC=1.2, Pulse_time=0.1, Voltage=38.614 T (K) @ t=0.1, Length_cyl=0.028, EC=130.9, TC=1.2, Pulse_time=0.11, Voltage=104.41 T (K) @ t=0.26, Length_cyl=0.0331, EC=130.9, TC=1.2, Pulse_time=0.275, Voltage=104.55 T (K) @ t=0.32, Length_cyl=0.0391, EC=130.9, TC=1.2, Pulse_time=0.332, Voltage=120.24 T (K) @ t=0.24, Length_cyl=0.0477, EC=130.9, TC=1.2, Pulse_time=0.244, Voltage=112.87 T (K) @ t=0.22, Length_cyl=0.0483, EC=130.9, TC=1.2, Pulse_time=0.227, Voltage=147.03 T (K) @ t=0.2, Length_cyl=0.0331, EC=130.9, TC=1.2, Pulse_time=0.203, Voltage=106.66 T (K) @ t=0.18, Length_cyl=0.0398, EC=130.9, TC=1.2, Pulse_time=0.187, Voltage=175.49 T (K) @ t=0.32, Length_cyl=0.03, EC=130.9, TC=1.2, Pulse_time=0.332, Voltage=140.35 T (K) @ t=0.18, Length_cyl=0.0415, EC=130.9, TC=1.2, Pulse_time=0.19, Voltage=86.97 T (K) @ t=0.16, Length_cyl=0.0278, EC=130.9, TC=1.2, Pulse_time=0.178, Voltage=121.34 T (K) @ t=0.18, Length_cyl=0.0294, EC=130.9, TC=1.2, Pulse_time=0.19, Voltage=162.18 T (K) @ t=0.24, Length_cyl=0.0349, EC=130.9, TC=1.2, Pulse_time=0.253, Voltage=126.77 T (K) @ t=0.26, Length_cyl=0.035, EC=130.9, TC=1.2, Pulse_time=0.277, Voltage=166.66 T (K) @ t=0.16, Length_cyl=0.0383, EC=130.9, TC=1.2, Pulse_time=0.164, Voltage=96.475 T (K) @ t=0.3, Length_cyl=0.0346, EC=130.9, TC=1.2, Pulse_time=0.301, Voltage=102.65 T (K) @ t=0.14, Length_cyl=0.0361, EC=130.9, TC=1.2, Pulse_time=0.155, Voltage=116.82 T (K) @ t=0.18, Length_cyl=0.0355, EC=130.9, TC=1.2, Pulse_time=0.198, Voltage=136.57 T (K) @ t=0.2, Length_cyl=0.0468, EC=130.9, TC=1.2, Pulse_time=0.202, Voltage=155.2 T (K) @ t=0.16, Length_cyl=0.0411, EC=130.9, TC=1.2, Pulse_time=0.179, Voltage=110.61 T (K) @ t=0.3, Length_cyl=0.0312, EC=130.9, TC=1.2, Pulse_time=0.305, Voltage=187.84 T (K) @ t=0.5, Length_cyl=0.0263, EC=130.9, TC=1.2, Pulse_time=0.5, Voltage=101.58 T (K) @ t=0.22, Length_cyl=0.0427, EC=130.9, TC=1.2, Pulse_time=0.22, Voltage=90.297 T (K) @ t=0.16, Length_cyl=0.0402, EC=118.41, TC=2.2, Pulse_time=0.178, Voltage=122.47 T (K) @ t=0.14, Length_cyl=0.0351, EC=118.41, TC=2.2, Pulse_time=0.142, Voltage=133.96 T (K) @ t=0.16, Length_cyl=0.0381, EC=118.41, TC=2.2, Pulse_time=0.168, Voltage=93.149 T (K) @ t=0.18, Length_cyl=0.0404, EC=118.41, TC=2.2, Pulse_time=0.194, Voltage=102.71 T (K) @ t=0.1, Length_cyl=0.0458, EC=118.41, TC=2.2, Pulse_time=0.115, Voltage=102.65 T (K) @ t=0.18, Length_cyl=0.0405, EC=118.41, TC=2.2, Pulse_time=0.193, Voltage=122.85 T (K) @ t=0.1, Length_cyl=0.0355, EC=118.41, TC=2.2, Pulse_time=0.105, Voltage=109.49 T (K) @ t=0.22, Length_cyl=0.0358, EC=118.41, TC=2.2, Pulse_time=0.238, Voltage=101.7 T (K) @ t=0.12, Length_cyl=0.0373, EC=118.41, TC=2.2, Pulse_time=0.137, Voltage=126.98 T (K) @ t=0.06, Length_cyl=0.0318, EC=118.41, TC=2.2, Pulse_time=0.071, Voltage=95.05 T (K) @ t=0.12, Length_cyl=0.0372, EC=118.41, TC=2.2, Pulse_time=0.136, Voltage=137.88 T (K) @ t=0.16, Length_cyl=0.034, EC=118.41, TC=2.2, Pulse_time=0.179, Voltage=123.03 T (K) @ t=0.28, Length_cyl=0.0402, EC=118.41, TC=2.2, Pulse_time=0.298, Voltage=87.921 T (K) @ t=0.2, Length_cyl=0.0336, EC=118.41, TC=2.2, Pulse_time=0.212, Voltage=99.802 T (K) @ t=0.18, Length_cyl=0.0416, EC=118.41, TC=2.2, Pulse_time=0.185, Voltage=98.376 T (K) @ t=0.24, Length_cyl=0.044, EC=118.41, TC=2.2, Pulse_time=0.242, Voltage=133.31 T (K) @ t=0.04, Length_cyl=0.0379, EC=118.41, TC=2.2, Pulse_time=0.054, Voltage=101.23 T (K) @ t=0.14, Length_cyl=0.037, EC=118.41, TC=2.2, Pulse_time=0.147, Voltage=102.71 T (K) @ t=0.26, Length_cyl=0.0404, EC=118.41, TC=2.2, Pulse_time=0.263, Voltage=89.822 T (K) @ t=0.32, Length_cyl=0.0351, EC=118.41, TC=2.2, Pulse_time=0.33, Voltage=95.941 T (K) @ t=0.5, Length_cyl=0.0254, EC=118.41, TC=2.2, Pulse_time=0.5, Voltage=101.58 T (K) @ t=0.22, Length_cyl=0.0436, EC=113.05, TC=2.7, Pulse_time=0.225, Voltage=152.97 T (K) @ t=0.18, Length_cyl=0.0516, EC=113.05, TC=2.7, Pulse_time=0.19, Voltage=98.673 T (K) @ t=0.06, Length_cyl=0.0593, EC=113.05, TC=2.7, Pulse_time=0.068, Voltage=147.77 T (K) @ t=0.18, Length_cyl=0.0391, EC=113.05, TC=2.7, Pulse_time=0.196, Voltage=96.505 T (K) @ t=0.32, Length_cyl=0.0371, EC=113.05, TC=2.7, Pulse_time=0.339, Voltage=63.564 T (K) @ t=0.36, Length_cyl=0.0412, EC=113.05, TC=2.7, Pulse_time=0.361, Voltage=103.25 T (K) @ t=0.08, Length_cyl=0.051, EC=113.05, TC=2.7, Pulse_time=0.081, Voltage=170.05 T (K) @ t=0.4, Length_cyl=0.0484, EC=113.05, TC=2.7, Pulse_time=0.405, Voltage=76.069 T (K) @ t=0.22, Length_cyl=0.0394, EC=113.05, TC=2.7, Pulse_time=0.234, Voltage=82.248 T (K) @ t=0.42, Length_cyl=0.0566, EC=113.05, TC=2.7, Pulse_time=0.434, Voltage=126.77 T (K) @ t=0.26, Length_cyl=0.0342, EC=113.05, TC=2.7, Pulse_time=0.275, Voltage=155.2 T (K) @ t=0.26, Length_cyl=0.054, EC=113.05, TC=2.7, Pulse_time=0.265, Voltage=155.52 T (K) @ t=0.5, Length_cyl=0.0339, EC=113.05, TC=2.7, Pulse_time=0.51, Voltage=59.079 T (K) @ t=0.36, Length_cyl=0.0572, EC=113.05, TC=2.7, Pulse_time=0.372, Voltage=94.099 T (K) @ t=0.36, Length_cyl=0.0453, EC=113.05, TC=2.7, Pulse_time=0.377, Voltage=108.92 T (K) @ t=0.34, Length_cyl=0.0478, EC=113.05, TC=2.7, Pulse_time=0.357, Voltage=75.683 T (K) @ t=0.36, Length_cyl=0.0575, EC=113.05, TC=2.7, Pulse_time=0.373, Voltage=93.624 T (K) @ t=0.28, Length_cyl=0.0347, EC=113.05, TC=2.7, Pulse_time=0.283, Voltage=154.46 T (K) @ t=0.3, Length_cyl=0.0572, EC=113.05, TC=2.7, Pulse_time=0.319, Voltage=94.099 T (K) @ t=0.28, Length_cyl=0.0359, EC=113.05, TC=2.7, Pulse_time=0.287, Voltage=154.46 T (K) @ t=0.36, Length_cyl=0.0572, EC=113.05, TC=2.7, Pulse_time=0.372, Voltage=96 T (K) @ t=0.26, Length_cyl=0.0299, EC=113.05, TC=2.7, Pulse_time=0.272, Voltage=155.2 T (K) @ t=0.26, Length_cyl=0.03, EC=113.05, TC=2.7, Pulse_time=0.269, Voltage=155.2 T (K) @ t=0.26, Length_cyl=0.0241, EC=113.05, TC=2.7, Pulse_time=0.27, Voltage=156.68 T (K) @ t=0.26, Length_cyl=0.0289, EC=113.05, TC=2.7, Pulse_time=0.268, Voltage=157.43 T (K) @ t=0.26, Length_cyl=0.0282, EC=113.05, TC=2.7, Pulse_time=0.267, Voltage=157.43 T (K) @ t=0.26, Length_cyl=0.0288, EC=113.05, TC=2.7, Pulse_time=0.273, Voltage=155.2 T (K) @ t=0.16, Length_cyl=0.0368, EC=113.05, TC=2.7, Pulse_time=0.16, Voltage=95.05 T (K) @ t=0.7, Length_cyl=0.0422, EC=113.05, TC=2.7, Pulse_time=0.7, Voltage=143.76 T (K) @ t=0.34, Length_cyl=0.0356, EC=113.05, TC=2.7, Pulse_time=0.34, Voltage=129.95 T (K) @ t=0.46, Length_cyl=0.0507, EC=113.05, TC=2.7, Pulse_time=0.46, Voltage=104.41 T (K) @ t=0.1, Length_cyl=0.0339, EC=113.05, TC=2.7, Pulse_time=0.11, Voltage=69.505 T (K) @ t=0.22, Length_cyl=0.0483, EC=113.05, TC=2.7, Pulse_time=0.22, Voltage=67.574 T (K) @ t=0.42, Length_cyl=0.0424, EC=113.05, TC=2.7, Pulse_time=0.43, Voltage=76.04 T (K) @ t=0.52, Length_cyl=0.046, EC=113.05, TC=2.7, Pulse_time=0.53, Voltage=98.02 T (K) @ t=0.38, Length_cyl=0.0354, EC=113.05, TC=2.7, Pulse_time=0.39, Voltage=50.495 T (K) @ t=0.06, Length_cyl=0.0383, EC=113.05, TC=2.7, Pulse_time=0.07, Voltage=53.465
0                         0                        0                        2761.8250335701423       348.2628044200767        910.538273780197         2144.924659814906        406.5048132203945        704.7396713011741        2879.65577364278         3201.1217066152976       1471.986110450315        1092.5167328911552       1308.7331787776081       1467.353557980679        751.234038396372         838.6652456121697        463.60358900220353       633.2209902690951        815.0874678126484        796.7882800220208        951.4100766472828        722.4408295487001        1795.529477465736        2867.945264799257        472.0074379139361        650.8652160147598        1008.5816723099632       1081.6766769164296       1177.7956504105289       300.7027498092229        2379.8081093396036       1503.9270992208565       322.36127793126496       898.5236930641562        976.953980510163         395.93069819519764       559.7801776195166        669.124079681382         521.9150793201281        6147.953713666921        1282.5332728975889       645.368144513783         526.0533386383229        887.9761412544223        748.1677746983495        320.3112812394791        3086.882482416099        1957.257539916603        391.9532966232083        1374.6569475008712       636.3576884874908        4695.5690528473315       641.6759014170149        2565.092725132734        507.15166051368044       1023.5087055223145       682.997428671862         1159.9060794870798       1241.6548585953904       371.72429772057995       539.4899594108274        592.4157416091861        563.5442789766821        465.3336273429702        340.8699652192477        315.0062772360092        493.89851112539856       318.7348249305179        753.7186174286741        420.6287155791756        310.7866742115546        336.3963207606553        682.1495970570741        422.7371778717473        408.7671424154896        362.44311525761964       417.90725529710426       348.0627991220341        463.9431202282243        522.5295182833345        697.1148120761363        614.4445038769798        358.422822732952         426.2295082289502        563.5464277709142        696.9886256464017        512.0608756754834        534.1282301299618        330.0579976738036        300.89836240300303       541.463433459121         1341.0689702087072       397.53244122677893       297.89691198149916       368.00800240602837       297.13214547530873       398.64510317026225       489.9744399320199        522.7529033897347        395.1095831916255        447.8230494843635        450.7235315208879        558.6451529095034        824.4386262111345        353.1294970818061        524.4156543417623        708.7027801709194        533.4162824981172        740.3568175063843        370.17596921509244       493.4915476044142        404.38667456570676       495.2752000406665        460.02391259415526       381.0800781125493        1118.2118314837587       859.1137475563432        367.79511995187283       395.05876025709944       433.10474240090457       358.78703414589614       373.0010215135573        327.6275152228113        406.81936300878          358.4287067482513        415.0054178480462        388.5949393891535        329.93942895405587       406.29130542126796       436.93333970407446       385.0700819287029        414.2530313819369        362.23554736959454       444.3424069889336        312.73420376272884       367.19471080360347       381.3555843157332        457.23261084645344       842.0343560420292        470.6034083651762        336.2810822919143        317.5643400035401        365.0033056763707        354.70379581004465       441.2955603057996        351.43016526782924       357.89551805610336       355.97009890459753       431.21455689431696       643.9925090974369        434.47028421430855       392.658601242722         356.99123219275594       429.5299035099027        349.0028843389582        355.6899985588459        656.6539284167851        346.3510863673374        632.7658586958488        359.59672544497346       752.1637370096607        749.0934129275429        1013.2843196882653       798.6251730209494        824.0435613882755        787.8978639499225        363.09383569787605       825.452965469967         590.0119650355895        420.97357634997894       320.6959114797823        321.3671511794111        381.66541766004093       447.8654289929926        343.8139592175           300.8116034500899
